<?xml version="1.0" encoding="UTF-8"?>

<!-- generated on Mon Jul 20 17:42:38 2020 by Eclipse SUMO GUI Version 1.6.0
<configuration xmlns:xsi="http://www.w3.org/2001/XMLSchema-instance" xsi:noNamespaceSchemaLocation="http://sumo.dlr.de/xsd/sumoConfiguration.xsd">

    <input>
        <net-file value="/Users/abderraoufcheniki/Documents/Dev/traffic/sumo_test/tutorials/new/intersection_3.net.xml"/>
        <route-files value="/Users/abderraoufcheniki/Documents/Dev/traffic/sumo_test/tutorials/new/intersection_3.rou.xml"/>
        <additional-files value="/Users/abderraoufcheniki/Documents/Dev/traffic/sumo_test/tutorials/new/intersection_3.add.xml"/>
    </input>

</configuration>
-->

<detector xmlns:xsi="http://www.w3.org/2001/XMLSchema-instance" xsi:noNamespaceSchemaLocation="http://sumo.dlr.de/xsd/det_e2_file.xsd">
</detector>
