<?xml version="1.0" encoding="UTF-8"?>

<!-- generated on Wed Sep 16 16:52:50 2020 by Eclipse SUMO Version 1.6.0
<configuration xmlns:xsi="http://www.w3.org/2001/XMLSchema-instance" xsi:noNamespaceSchemaLocation="http://sumo.dlr.de/xsd/sumoConfiguration.xsd">

    <input>
        <net-file value="intersection_3.net.xml"/>
        <route-files value="intersection_3.rou.xml"/>
        <additional-files value="intersection_3.add.xml"/>
    </input>

    <output>
        <summary-output value="summary.xml"/>
        <tripinfo-output value="intersection_3_info.xml"/>
        <tripinfo-output.write-unfinished value="true"/>
        <statistic-output value="stats.xml"/>
    </output>

    <processing>
        <time-to-teleport value="-1"/>
        <eager-insert value="true"/>
    </processing>

    <traci_server>
        <remote-port value="51823"/>
    </traci_server>

</configuration>
-->

<detector xmlns:xsi="http://www.w3.org/2001/XMLSchema-instance" xsi:noNamespaceSchemaLocation="http://sumo.dlr.de/xsd/det_e2_file.xsd">
   <interval begin="0.00" end="300.00" id="TLSintersection_1_E2CollectorOn_e4_in_0" sampledSeconds="12.26" nVehEntered="1" nVehLeft="1" nVehSeen="1" meanSpeed="8.56" meanTimeLoss="4.42" meanOccupancy="0.19" maxOccupancy="5.00" meanMaxJamLengthInVehicles="0.00" meanMaxJamLengthInMeters="0.00" maxJamLengthInVehicles="0" maxJamLengthInMeters="0.00" jamLengthInVehiclesSum="0" jamLengthInMetersSum="0.00" meanHaltingDuration="0.00" maxHaltingDuration="0.00" haltingDurationSum="0.00" meanIntervalHaltingDuration="0.00" maxIntervalHaltingDuration="0.00" intervalHaltingDurationSum="0.00" startedHalts="0.00" meanVehicleNumber="0.05" maxVehicleNumber="1" />
   <interval begin="0.00" end="300.00" id="TLSintersection_1_E2CollectorOn_e4_in_1" sampledSeconds="148.41" nVehEntered="9" nVehLeft="8" nVehSeen="9" meanSpeed="5.79" meanTimeLoss="9.40" meanOccupancy="2.43" maxOccupancy="10.00" meanMaxJamLengthInVehicles="0.00" meanMaxJamLengthInMeters="0.00" maxJamLengthInVehicles="0" maxJamLengthInMeters="0.00" jamLengthInVehiclesSum="0" jamLengthInMetersSum="0.00" meanHaltingDuration="0.00" maxHaltingDuration="0.00" haltingDurationSum="0.00" meanIntervalHaltingDuration="0.00" maxIntervalHaltingDuration="0.00" intervalHaltingDurationSum="0.00" startedHalts="0.00" meanVehicleNumber="0.51" maxVehicleNumber="2" />
   <interval begin="0.00" end="300.00" id="TLSintersection_1_E2CollectorOn_e4_in_2" sampledSeconds="53.69" nVehEntered="4" nVehLeft="3" nVehSeen="4" meanSpeed="3.34" meanTimeLoss="10.24" meanOccupancy="0.84" maxOccupancy="5.00" meanMaxJamLengthInVehicles="0.00" meanMaxJamLengthInMeters="0.00" maxJamLengthInVehicles="0" maxJamLengthInMeters="0.00" jamLengthInVehiclesSum="0" jamLengthInMetersSum="0.00" meanHaltingDuration="0.00" maxHaltingDuration="0.00" haltingDurationSum="0.00" meanIntervalHaltingDuration="0.00" maxIntervalHaltingDuration="0.00" intervalHaltingDurationSum="0.00" startedHalts="0.00" meanVehicleNumber="0.18" maxVehicleNumber="1" />
   <interval begin="0.00" end="300.00" id="TLSintersection_1_E2CollectorOn_e4_in_3" sampledSeconds="14.04" nVehEntered="1" nVehLeft="0" nVehSeen="1" meanSpeed="7.05" meanTimeLoss="7.03" meanOccupancy="0.24" maxOccupancy="5.00" meanMaxJamLengthInVehicles="0.00" meanMaxJamLengthInMeters="0.00" maxJamLengthInVehicles="0" maxJamLengthInMeters="0.00" jamLengthInVehiclesSum="0" jamLengthInMetersSum="0.00" meanHaltingDuration="0.00" maxHaltingDuration="0.00" haltingDurationSum="0.00" meanIntervalHaltingDuration="0.00" maxIntervalHaltingDuration="0.00" intervalHaltingDurationSum="0.00" startedHalts="0.00" meanVehicleNumber="0.05" maxVehicleNumber="1" />
   <interval begin="0.00" end="300.00" id="TLSintersection_1_E2CollectorOn_e3_in_0" sampledSeconds="43.15" nVehEntered="2" nVehLeft="2" nVehSeen="2" meanSpeed="4.87" meanTimeLoss="13.25" meanOccupancy="0.70" maxOccupancy="5.00" meanMaxJamLengthInVehicles="0.00" meanMaxJamLengthInMeters="0.00" maxJamLengthInVehicles="0" maxJamLengthInMeters="0.00" jamLengthInVehiclesSum="0" jamLengthInMetersSum="0.00" meanHaltingDuration="0.00" maxHaltingDuration="0.00" haltingDurationSum="0.00" meanIntervalHaltingDuration="0.00" maxIntervalHaltingDuration="0.00" intervalHaltingDurationSum="0.00" startedHalts="0.00" meanVehicleNumber="0.15" maxVehicleNumber="1" />
   <interval begin="0.00" end="300.00" id="TLSintersection_1_E2CollectorOn_e3_in_1" sampledSeconds="178.41" nVehEntered="14" nVehLeft="13" nVehSeen="14" meanSpeed="7.44" meanTimeLoss="5.75" meanOccupancy="2.92" maxOccupancy="15.00" meanMaxJamLengthInVehicles="0.00" meanMaxJamLengthInMeters="0.00" maxJamLengthInVehicles="0" maxJamLengthInMeters="0.00" jamLengthInVehiclesSum="0" jamLengthInMetersSum="0.00" meanHaltingDuration="0.00" maxHaltingDuration="0.00" haltingDurationSum="0.00" meanIntervalHaltingDuration="0.00" maxIntervalHaltingDuration="0.00" intervalHaltingDurationSum="0.00" startedHalts="0.00" meanVehicleNumber="0.64" maxVehicleNumber="3" />
   <interval begin="0.00" end="300.00" id="TLSintersection_1_E2CollectorOn_e3_in_2" sampledSeconds="56.95" nVehEntered="5" nVehLeft="4" nVehSeen="5" meanSpeed="3.86" meanTimeLoss="8.25" meanOccupancy="0.89" maxOccupancy="10.00" meanMaxJamLengthInVehicles="0.00" meanMaxJamLengthInMeters="0.00" maxJamLengthInVehicles="0" maxJamLengthInMeters="0.00" jamLengthInVehiclesSum="0" jamLengthInMetersSum="0.00" meanHaltingDuration="0.00" maxHaltingDuration="0.00" haltingDurationSum="0.00" meanIntervalHaltingDuration="0.00" maxIntervalHaltingDuration="0.00" intervalHaltingDurationSum="0.00" startedHalts="0.00" meanVehicleNumber="0.20" maxVehicleNumber="2" />
   <interval begin="0.00" end="300.00" id="TLSintersection_1_E2CollectorOn_e3_in_3" sampledSeconds="53.08" nVehEntered="2" nVehLeft="2" nVehSeen="2" meanSpeed="3.96" meanTimeLoss="19.57" meanOccupancy="0.86" maxOccupancy="5.00" meanMaxJamLengthInVehicles="0.00" meanMaxJamLengthInMeters="0.00" maxJamLengthInVehicles="0" maxJamLengthInMeters="0.00" jamLengthInVehiclesSum="0" jamLengthInMetersSum="0.00" meanHaltingDuration="0.00" maxHaltingDuration="0.00" haltingDurationSum="0.00" meanIntervalHaltingDuration="0.00" maxIntervalHaltingDuration="0.00" intervalHaltingDurationSum="0.00" startedHalts="0.00" meanVehicleNumber="0.18" maxVehicleNumber="1" />
   <interval begin="0.00" end="300.00" id="TLSintersection_1_E2CollectorOn_e2_in_0" sampledSeconds="0.00" nVehEntered="0" nVehLeft="0" nVehSeen="0" meanSpeed="-1.00" meanTimeLoss="-1.00" meanOccupancy="0.00" maxOccupancy="0.00" meanMaxJamLengthInVehicles="0.00" meanMaxJamLengthInMeters="0.00" maxJamLengthInVehicles="0" maxJamLengthInMeters="0.00" jamLengthInVehiclesSum="0" jamLengthInMetersSum="0.00" meanHaltingDuration="0.00" maxHaltingDuration="0.00" haltingDurationSum="0.00" meanIntervalHaltingDuration="0.00" maxIntervalHaltingDuration="0.00" intervalHaltingDurationSum="0.00" startedHalts="0.00" meanVehicleNumber="0.00" maxVehicleNumber="0" />
   <interval begin="0.00" end="300.00" id="TLSintersection_1_E2CollectorOn_e2_in_1" sampledSeconds="116.78" nVehEntered="8" nVehLeft="7" nVehSeen="8" meanSpeed="6.29" meanTimeLoss="7.96" meanOccupancy="1.90" maxOccupancy="10.00" meanMaxJamLengthInVehicles="0.00" meanMaxJamLengthInMeters="0.00" maxJamLengthInVehicles="0" maxJamLengthInMeters="0.00" jamLengthInVehiclesSum="0" jamLengthInMetersSum="0.00" meanHaltingDuration="0.00" maxHaltingDuration="0.00" haltingDurationSum="0.00" meanIntervalHaltingDuration="0.00" maxIntervalHaltingDuration="0.00" intervalHaltingDurationSum="0.00" startedHalts="0.00" meanVehicleNumber="0.41" maxVehicleNumber="2" />
   <interval begin="0.00" end="300.00" id="TLSintersection_1_E2CollectorOn_e2_in_2" sampledSeconds="14.97" nVehEntered="1" nVehLeft="1" nVehSeen="1" meanSpeed="1.90" meanTimeLoss="12.77" meanOccupancy="0.23" maxOccupancy="5.00" meanMaxJamLengthInVehicles="0.00" meanMaxJamLengthInMeters="0.00" maxJamLengthInVehicles="0" maxJamLengthInMeters="0.00" jamLengthInVehiclesSum="0" jamLengthInMetersSum="0.00" meanHaltingDuration="0.00" maxHaltingDuration="0.00" haltingDurationSum="0.00" meanIntervalHaltingDuration="0.00" maxIntervalHaltingDuration="0.00" intervalHaltingDurationSum="0.00" startedHalts="0.00" meanVehicleNumber="0.05" maxVehicleNumber="1" />
   <interval begin="0.00" end="300.00" id="TLSintersection_1_E2CollectorOn_e2_in_3" sampledSeconds="76.50" nVehEntered="3" nVehLeft="3" nVehSeen="3" meanSpeed="4.12" meanTimeLoss="18.10" meanOccupancy="1.23" maxOccupancy="5.00" meanMaxJamLengthInVehicles="0.00" meanMaxJamLengthInMeters="0.00" maxJamLengthInVehicles="0" maxJamLengthInMeters="0.00" jamLengthInVehiclesSum="0" jamLengthInMetersSum="0.00" meanHaltingDuration="0.00" maxHaltingDuration="0.00" haltingDurationSum="0.00" meanIntervalHaltingDuration="0.00" maxIntervalHaltingDuration="0.00" intervalHaltingDurationSum="0.00" startedHalts="0.00" meanVehicleNumber="0.26" maxVehicleNumber="1" />
   <interval begin="0.00" end="300.00" id="TLSintersection_1_E2CollectorOn_e1_in_0" sampledSeconds="114.74" nVehEntered="5" nVehLeft="5" nVehSeen="5" meanSpeed="4.58" meanTimeLoss="15.01" meanOccupancy="1.85" maxOccupancy="10.00" meanMaxJamLengthInVehicles="0.00" meanMaxJamLengthInMeters="0.00" maxJamLengthInVehicles="0" maxJamLengthInMeters="0.00" jamLengthInVehiclesSum="0" jamLengthInMetersSum="0.00" meanHaltingDuration="0.00" maxHaltingDuration="0.00" haltingDurationSum="0.00" meanIntervalHaltingDuration="0.00" maxIntervalHaltingDuration="0.00" intervalHaltingDurationSum="0.00" startedHalts="0.00" meanVehicleNumber="0.40" maxVehicleNumber="2" />
   <interval begin="0.00" end="300.00" id="TLSintersection_1_E2CollectorOn_e1_in_1" sampledSeconds="156.76" nVehEntered="10" nVehLeft="9" nVehSeen="10" meanSpeed="5.74" meanTimeLoss="9.19" meanOccupancy="2.55" maxOccupancy="15.00" meanMaxJamLengthInVehicles="0.00" meanMaxJamLengthInMeters="0.00" maxJamLengthInVehicles="0" maxJamLengthInMeters="0.00" jamLengthInVehiclesSum="0" jamLengthInMetersSum="0.00" meanHaltingDuration="0.00" maxHaltingDuration="0.00" haltingDurationSum="0.00" meanIntervalHaltingDuration="0.00" maxIntervalHaltingDuration="0.00" intervalHaltingDurationSum="0.00" startedHalts="0.00" meanVehicleNumber="0.55" maxVehicleNumber="3" />
   <interval begin="0.00" end="300.00" id="TLSintersection_1_E2CollectorOn_e1_in_2" sampledSeconds="62.00" nVehEntered="3" nVehLeft="3" nVehSeen="3" meanSpeed="2.59" meanTimeLoss="17.10" meanOccupancy="0.98" maxOccupancy="5.00" meanMaxJamLengthInVehicles="0.00" meanMaxJamLengthInMeters="0.00" maxJamLengthInVehicles="0" maxJamLengthInMeters="0.00" jamLengthInVehiclesSum="0" jamLengthInMetersSum="0.00" meanHaltingDuration="0.00" maxHaltingDuration="0.00" haltingDurationSum="0.00" meanIntervalHaltingDuration="0.00" maxIntervalHaltingDuration="0.00" intervalHaltingDurationSum="0.00" startedHalts="0.00" meanVehicleNumber="0.21" maxVehicleNumber="1" />
   <interval begin="0.00" end="300.00" id="TLSintersection_1_E2CollectorOn_e1_in_3" sampledSeconds="8.78" nVehEntered="1" nVehLeft="0" nVehSeen="1" meanSpeed="10.70" meanTimeLoss="0.83" meanOccupancy="0.15" maxOccupancy="5.00" meanMaxJamLengthInVehicles="0.00" meanMaxJamLengthInMeters="0.00" maxJamLengthInVehicles="0" maxJamLengthInMeters="0.00" jamLengthInVehiclesSum="0" jamLengthInMetersSum="0.00" meanHaltingDuration="0.00" maxHaltingDuration="0.00" haltingDurationSum="0.00" meanIntervalHaltingDuration="0.00" maxIntervalHaltingDuration="0.00" intervalHaltingDurationSum="0.00" startedHalts="0.00" meanVehicleNumber="0.03" maxVehicleNumber="1" />
   <interval begin="300.00" end="600.00" id="TLSintersection_1_E2CollectorOn_e4_in_0" sampledSeconds="66.46" nVehEntered="3" nVehLeft="3" nVehSeen="3" meanSpeed="4.74" meanTimeLoss="14.07" meanOccupancy="1.07" maxOccupancy="5.00" meanMaxJamLengthInVehicles="0.00" meanMaxJamLengthInMeters="0.00" maxJamLengthInVehicles="0" maxJamLengthInMeters="0.00" jamLengthInVehiclesSum="0" jamLengthInMetersSum="0.00" meanHaltingDuration="0.00" maxHaltingDuration="0.00" haltingDurationSum="0.00" meanIntervalHaltingDuration="0.00" maxIntervalHaltingDuration="0.00" intervalHaltingDurationSum="0.00" startedHalts="0.00" meanVehicleNumber="0.23" maxVehicleNumber="1" />
   <interval begin="300.00" end="600.00" id="TLSintersection_1_E2CollectorOn_e4_in_1" sampledSeconds="288.29" nVehEntered="13" nVehLeft="12" nVehSeen="14" meanSpeed="4.22" meanTimeLoss="14.46" meanOccupancy="4.69" maxOccupancy="15.00" meanMaxJamLengthInVehicles="0.00" meanMaxJamLengthInMeters="0.00" maxJamLengthInVehicles="0" maxJamLengthInMeters="0.00" jamLengthInVehiclesSum="0" jamLengthInMetersSum="0.00" meanHaltingDuration="0.00" maxHaltingDuration="0.00" haltingDurationSum="0.00" meanIntervalHaltingDuration="0.00" maxIntervalHaltingDuration="0.00" intervalHaltingDurationSum="0.00" startedHalts="0.00" meanVehicleNumber="1.00" maxVehicleNumber="3" />
   <interval begin="300.00" end="600.00" id="TLSintersection_1_E2CollectorOn_e4_in_2" sampledSeconds="95.27" nVehEntered="5" nVehLeft="5" nVehSeen="6" meanSpeed="2.98" meanTimeLoss="12.62" meanOccupancy="1.53" maxOccupancy="10.00" meanMaxJamLengthInVehicles="0.00" meanMaxJamLengthInMeters="0.00" maxJamLengthInVehicles="0" maxJamLengthInMeters="0.00" jamLengthInVehiclesSum="0" jamLengthInMetersSum="0.00" meanHaltingDuration="0.00" maxHaltingDuration="0.00" haltingDurationSum="0.00" meanIntervalHaltingDuration="0.00" maxIntervalHaltingDuration="0.00" intervalHaltingDurationSum="0.00" startedHalts="0.00" meanVehicleNumber="0.33" maxVehicleNumber="2" />
   <interval begin="300.00" end="600.00" id="TLSintersection_1_E2CollectorOn_e4_in_3" sampledSeconds="33.53" nVehEntered="3" nVehLeft="4" nVehSeen="4" meanSpeed="9.57" meanTimeLoss="2.75" meanOccupancy="0.51" maxOccupancy="10.00" meanMaxJamLengthInVehicles="0.00" meanMaxJamLengthInMeters="0.00" maxJamLengthInVehicles="0" maxJamLengthInMeters="0.00" jamLengthInVehiclesSum="0" jamLengthInMetersSum="0.00" meanHaltingDuration="0.00" maxHaltingDuration="0.00" haltingDurationSum="0.00" meanIntervalHaltingDuration="0.00" maxIntervalHaltingDuration="0.00" intervalHaltingDurationSum="0.00" startedHalts="0.00" meanVehicleNumber="0.13" maxVehicleNumber="2" />
   <interval begin="300.00" end="600.00" id="TLSintersection_1_E2CollectorOn_e3_in_0" sampledSeconds="61.49" nVehEntered="3" nVehLeft="3" nVehSeen="3" meanSpeed="5.12" meanTimeLoss="12.20" meanOccupancy="0.99" maxOccupancy="5.00" meanMaxJamLengthInVehicles="0.00" meanMaxJamLengthInMeters="0.00" maxJamLengthInVehicles="0" maxJamLengthInMeters="0.00" jamLengthInVehiclesSum="0" jamLengthInMetersSum="0.00" meanHaltingDuration="0.00" maxHaltingDuration="0.00" haltingDurationSum="0.00" meanIntervalHaltingDuration="0.00" maxIntervalHaltingDuration="0.00" intervalHaltingDurationSum="0.00" startedHalts="0.00" meanVehicleNumber="0.22" maxVehicleNumber="1" />
   <interval begin="300.00" end="600.00" id="TLSintersection_1_E2CollectorOn_e3_in_1" sampledSeconds="641.61" nVehEntered="37" nVehLeft="35" nVehSeen="38" meanSpeed="5.14" meanTimeLoss="10.55" meanOccupancy="10.55" maxOccupancy="24.90" meanMaxJamLengthInVehicles="0.00" meanMaxJamLengthInMeters="0.00" maxJamLengthInVehicles="0" maxJamLengthInMeters="0.00" jamLengthInVehiclesSum="0" jamLengthInMetersSum="0.00" meanHaltingDuration="0.00" maxHaltingDuration="0.00" haltingDurationSum="0.00" meanIntervalHaltingDuration="0.00" maxIntervalHaltingDuration="0.00" intervalHaltingDurationSum="0.00" startedHalts="0.00" meanVehicleNumber="2.24" maxVehicleNumber="5" />
   <interval begin="300.00" end="600.00" id="TLSintersection_1_E2CollectorOn_e3_in_2" sampledSeconds="327.98" nVehEntered="22" nVehLeft="21" nVehSeen="23" meanSpeed="3.85" meanTimeLoss="10.43" meanOccupancy="5.20" maxOccupancy="15.00" meanMaxJamLengthInVehicles="0.00" meanMaxJamLengthInMeters="0.00" maxJamLengthInVehicles="0" maxJamLengthInMeters="0.00" jamLengthInVehiclesSum="0" jamLengthInMetersSum="0.00" meanHaltingDuration="0.00" maxHaltingDuration="0.00" haltingDurationSum="0.00" meanIntervalHaltingDuration="0.00" maxIntervalHaltingDuration="0.00" intervalHaltingDurationSum="0.00" startedHalts="0.00" meanVehicleNumber="1.14" maxVehicleNumber="3" />
   <interval begin="300.00" end="600.00" id="TLSintersection_1_E2CollectorOn_e3_in_3" sampledSeconds="52.94" nVehEntered="3" nVehLeft="3" nVehSeen="3" meanSpeed="5.95" meanTimeLoss="10.92" meanOccupancy="0.85" maxOccupancy="10.00" meanMaxJamLengthInVehicles="0.00" meanMaxJamLengthInMeters="0.00" maxJamLengthInVehicles="0" maxJamLengthInMeters="0.00" jamLengthInVehiclesSum="0" jamLengthInMetersSum="0.00" meanHaltingDuration="0.00" maxHaltingDuration="0.00" haltingDurationSum="0.00" meanIntervalHaltingDuration="0.00" maxIntervalHaltingDuration="0.00" intervalHaltingDurationSum="0.00" startedHalts="0.00" meanVehicleNumber="0.19" maxVehicleNumber="2" />
   <interval begin="300.00" end="600.00" id="TLSintersection_1_E2CollectorOn_e2_in_0" sampledSeconds="57.96" nVehEntered="2" nVehLeft="2" nVehSeen="2" meanSpeed="3.62" meanTimeLoss="20.75" meanOccupancy="0.94" maxOccupancy="5.00" meanMaxJamLengthInVehicles="0.00" meanMaxJamLengthInMeters="0.00" maxJamLengthInVehicles="0" maxJamLengthInMeters="0.00" jamLengthInVehiclesSum="0" jamLengthInMetersSum="0.00" meanHaltingDuration="0.00" maxHaltingDuration="0.00" haltingDurationSum="0.00" meanIntervalHaltingDuration="0.00" maxIntervalHaltingDuration="0.00" intervalHaltingDurationSum="0.00" startedHalts="0.00" meanVehicleNumber="0.20" maxVehicleNumber="1" />
   <interval begin="300.00" end="600.00" id="TLSintersection_1_E2CollectorOn_e2_in_1" sampledSeconds="461.68" nVehEntered="24" nVehLeft="25" nVehSeen="25" meanSpeed="4.92" meanTimeLoss="11.89" meanOccupancy="7.59" maxOccupancy="15.00" meanMaxJamLengthInVehicles="0.00" meanMaxJamLengthInMeters="0.00" maxJamLengthInVehicles="0" maxJamLengthInMeters="0.00" jamLengthInVehiclesSum="0" jamLengthInMetersSum="0.00" meanHaltingDuration="0.00" maxHaltingDuration="0.00" haltingDurationSum="0.00" meanIntervalHaltingDuration="0.00" maxIntervalHaltingDuration="0.00" intervalHaltingDurationSum="0.00" startedHalts="0.00" meanVehicleNumber="1.61" maxVehicleNumber="3" />
   <interval begin="300.00" end="600.00" id="TLSintersection_1_E2CollectorOn_e2_in_2" sampledSeconds="196.36" nVehEntered="12" nVehLeft="12" nVehSeen="12" meanSpeed="2.19" meanTimeLoss="13.93" meanOccupancy="3.09" maxOccupancy="10.00" meanMaxJamLengthInVehicles="0.00" meanMaxJamLengthInMeters="0.00" maxJamLengthInVehicles="0" maxJamLengthInMeters="0.00" jamLengthInVehiclesSum="0" jamLengthInMetersSum="0.00" meanHaltingDuration="0.00" maxHaltingDuration="0.00" haltingDurationSum="0.00" meanIntervalHaltingDuration="0.00" maxIntervalHaltingDuration="0.00" intervalHaltingDurationSum="0.00" startedHalts="0.00" meanVehicleNumber="0.67" maxVehicleNumber="2" />
   <interval begin="300.00" end="600.00" id="TLSintersection_1_E2CollectorOn_e2_in_3" sampledSeconds="100.59" nVehEntered="4" nVehLeft="4" nVehSeen="4" meanSpeed="4.18" meanTimeLoss="17.83" meanOccupancy="1.62" maxOccupancy="5.00" meanMaxJamLengthInVehicles="0.00" meanMaxJamLengthInMeters="0.00" maxJamLengthInVehicles="0" maxJamLengthInMeters="0.00" jamLengthInVehiclesSum="0" jamLengthInMetersSum="0.00" meanHaltingDuration="0.00" maxHaltingDuration="0.00" haltingDurationSum="0.00" meanIntervalHaltingDuration="0.00" maxIntervalHaltingDuration="0.00" intervalHaltingDurationSum="0.00" startedHalts="0.00" meanVehicleNumber="0.35" maxVehicleNumber="2" />
   <interval begin="300.00" end="600.00" id="TLSintersection_1_E2CollectorOn_e1_in_0" sampledSeconds="77.64" nVehEntered="5" nVehLeft="4" nVehSeen="5" meanSpeed="6.55" meanTimeLoss="8.02" meanOccupancy="1.25" maxOccupancy="10.00" meanMaxJamLengthInVehicles="0.00" meanMaxJamLengthInMeters="0.00" maxJamLengthInVehicles="0" maxJamLengthInMeters="0.00" jamLengthInVehiclesSum="0" jamLengthInMetersSum="0.00" meanHaltingDuration="0.00" maxHaltingDuration="0.00" haltingDurationSum="0.00" meanIntervalHaltingDuration="0.00" maxIntervalHaltingDuration="0.00" intervalHaltingDurationSum="0.00" startedHalts="0.00" meanVehicleNumber="0.27" maxVehicleNumber="2" />
   <interval begin="300.00" end="600.00" id="TLSintersection_1_E2CollectorOn_e1_in_1" sampledSeconds="451.54" nVehEntered="27" nVehLeft="25" nVehSeen="28" meanSpeed="5.27" meanTimeLoss="9.87" meanOccupancy="7.43" maxOccupancy="20.00" meanMaxJamLengthInVehicles="0.00" meanMaxJamLengthInMeters="0.00" maxJamLengthInVehicles="0" maxJamLengthInMeters="0.00" jamLengthInVehiclesSum="0" jamLengthInMetersSum="0.00" meanHaltingDuration="0.00" maxHaltingDuration="0.00" haltingDurationSum="0.00" meanIntervalHaltingDuration="0.00" maxIntervalHaltingDuration="0.00" intervalHaltingDurationSum="0.00" startedHalts="0.00" meanVehicleNumber="1.57" maxVehicleNumber="4" />
   <interval begin="300.00" end="600.00" id="TLSintersection_1_E2CollectorOn_e1_in_2" sampledSeconds="213.65" nVehEntered="17" nVehLeft="14" nVehSeen="17" meanSpeed="3.43" meanTimeLoss="9.59" meanOccupancy="3.40" maxOccupancy="15.00" meanMaxJamLengthInVehicles="0.00" meanMaxJamLengthInMeters="0.00" maxJamLengthInVehicles="0" maxJamLengthInMeters="0.00" jamLengthInVehiclesSum="0" jamLengthInMetersSum="0.00" meanHaltingDuration="0.00" maxHaltingDuration="0.00" haltingDurationSum="0.00" meanIntervalHaltingDuration="0.00" maxIntervalHaltingDuration="0.00" intervalHaltingDurationSum="0.00" startedHalts="0.00" meanVehicleNumber="0.75" maxVehicleNumber="4" />
   <interval begin="300.00" end="600.00" id="TLSintersection_1_E2CollectorOn_e1_in_3" sampledSeconds="144.31" nVehEntered="4" nVehLeft="5" nVehSeen="5" meanSpeed="2.99" meanTimeLoss="22.39" meanOccupancy="2.35" maxOccupancy="10.00" meanMaxJamLengthInVehicles="0.00" meanMaxJamLengthInMeters="0.00" maxJamLengthInVehicles="0" maxJamLengthInMeters="0.00" jamLengthInVehiclesSum="0" jamLengthInMetersSum="0.00" meanHaltingDuration="0.00" maxHaltingDuration="0.00" haltingDurationSum="0.00" meanIntervalHaltingDuration="0.00" maxIntervalHaltingDuration="0.00" intervalHaltingDurationSum="0.00" startedHalts="0.00" meanVehicleNumber="0.50" maxVehicleNumber="2" />
   <interval begin="600.00" end="900.00" id="TLSintersection_1_E2CollectorOn_e4_in_0" sampledSeconds="130.47" nVehEntered="7" nVehLeft="7" nVehSeen="7" meanSpeed="5.63" meanTimeLoss="10.20" meanOccupancy="2.08" maxOccupancy="10.00" meanMaxJamLengthInVehicles="0.00" meanMaxJamLengthInMeters="0.00" maxJamLengthInVehicles="0" maxJamLengthInMeters="0.00" jamLengthInVehiclesSum="0" jamLengthInMetersSum="0.00" meanHaltingDuration="0.00" maxHaltingDuration="0.00" haltingDurationSum="0.00" meanIntervalHaltingDuration="0.00" maxIntervalHaltingDuration="0.00" intervalHaltingDurationSum="0.00" startedHalts="0.00" meanVehicleNumber="0.46" maxVehicleNumber="2" />
   <interval begin="600.00" end="900.00" id="TLSintersection_1_E2CollectorOn_e4_in_1" sampledSeconds="671.60" nVehEntered="34" nVehLeft="35" nVehSeen="36" meanSpeed="4.79" meanTimeLoss="12.08" meanOccupancy="11.01" maxOccupancy="25.00" meanMaxJamLengthInVehicles="0.00" meanMaxJamLengthInMeters="0.00" maxJamLengthInVehicles="0" maxJamLengthInMeters="0.00" jamLengthInVehiclesSum="0" jamLengthInMetersSum="0.00" meanHaltingDuration="0.00" maxHaltingDuration="0.00" haltingDurationSum="0.00" meanIntervalHaltingDuration="0.00" maxIntervalHaltingDuration="0.00" intervalHaltingDurationSum="0.00" startedHalts="0.00" meanVehicleNumber="2.33" maxVehicleNumber="5" />
   <interval begin="600.00" end="900.00" id="TLSintersection_1_E2CollectorOn_e4_in_2" sampledSeconds="425.52" nVehEntered="22" nVehLeft="22" nVehSeen="23" meanSpeed="3.20" meanTimeLoss="14.53" meanOccupancy="6.87" maxOccupancy="23.47" meanMaxJamLengthInVehicles="0.00" meanMaxJamLengthInMeters="0.00" maxJamLengthInVehicles="0" maxJamLengthInMeters="0.00" jamLengthInVehiclesSum="0" jamLengthInMetersSum="0.00" meanHaltingDuration="0.00" maxHaltingDuration="0.00" haltingDurationSum="0.00" meanIntervalHaltingDuration="0.00" maxIntervalHaltingDuration="0.00" intervalHaltingDurationSum="0.00" startedHalts="0.00" meanVehicleNumber="1.47" maxVehicleNumber="5" />
   <interval begin="600.00" end="900.00" id="TLSintersection_1_E2CollectorOn_e4_in_3" sampledSeconds="269.85" nVehEntered="10" nVehLeft="8" nVehSeen="10" meanSpeed="3.82" meanTimeLoss="19.74" meanOccupancy="4.42" maxOccupancy="13.82" meanMaxJamLengthInVehicles="0.00" meanMaxJamLengthInMeters="0.00" maxJamLengthInVehicles="0" maxJamLengthInMeters="0.00" jamLengthInVehiclesSum="0" jamLengthInMetersSum="0.00" meanHaltingDuration="0.00" maxHaltingDuration="0.00" haltingDurationSum="0.00" meanIntervalHaltingDuration="0.00" maxIntervalHaltingDuration="0.00" intervalHaltingDurationSum="0.00" startedHalts="0.00" meanVehicleNumber="0.93" maxVehicleNumber="3" />
   <interval begin="600.00" end="900.00" id="TLSintersection_1_E2CollectorOn_e3_in_0" sampledSeconds="71.85" nVehEntered="3" nVehLeft="3" nVehSeen="3" meanSpeed="4.38" meanTimeLoss="16.26" meanOccupancy="1.16" maxOccupancy="10.00" meanMaxJamLengthInVehicles="0.00" meanMaxJamLengthInMeters="0.00" maxJamLengthInVehicles="0" maxJamLengthInMeters="0.00" jamLengthInVehiclesSum="0" jamLengthInMetersSum="0.00" meanHaltingDuration="0.00" maxHaltingDuration="0.00" haltingDurationSum="0.00" meanIntervalHaltingDuration="0.00" maxIntervalHaltingDuration="0.00" intervalHaltingDurationSum="0.00" startedHalts="0.00" meanVehicleNumber="0.25" maxVehicleNumber="2" />
   <interval begin="600.00" end="900.00" id="TLSintersection_1_E2CollectorOn_e3_in_1" sampledSeconds="597.92" nVehEntered="39" nVehLeft="40" nVehSeen="42" meanSpeed="5.69" meanTimeLoss="8.35" meanOccupancy="9.84" maxOccupancy="25.00" meanMaxJamLengthInVehicles="0.00" meanMaxJamLengthInMeters="0.00" maxJamLengthInVehicles="0" maxJamLengthInMeters="0.00" jamLengthInVehiclesSum="0" jamLengthInMetersSum="0.00" meanHaltingDuration="0.00" maxHaltingDuration="0.00" haltingDurationSum="0.00" meanIntervalHaltingDuration="0.00" maxIntervalHaltingDuration="0.00" intervalHaltingDurationSum="0.00" startedHalts="0.00" meanVehicleNumber="2.10" maxVehicleNumber="5" />
   <interval begin="600.00" end="900.00" id="TLSintersection_1_E2CollectorOn_e3_in_2" sampledSeconds="282.72" nVehEntered="20" nVehLeft="22" nVehSeen="22" meanSpeed="3.49" meanTimeLoss="9.89" meanOccupancy="4.43" maxOccupancy="15.00" meanMaxJamLengthInVehicles="0.00" meanMaxJamLengthInMeters="0.00" maxJamLengthInVehicles="0" maxJamLengthInMeters="0.00" jamLengthInVehiclesSum="0" jamLengthInMetersSum="0.00" meanHaltingDuration="0.00" maxHaltingDuration="0.00" haltingDurationSum="0.00" meanIntervalHaltingDuration="0.00" maxIntervalHaltingDuration="0.00" intervalHaltingDurationSum="0.00" startedHalts="0.00" meanVehicleNumber="0.98" maxVehicleNumber="4" />
   <interval begin="600.00" end="900.00" id="TLSintersection_1_E2CollectorOn_e3_in_3" sampledSeconds="241.88" nVehEntered="12" nVehLeft="11" nVehSeen="12" meanSpeed="5.18" meanTimeLoss="12.62" meanOccupancy="3.94" maxOccupancy="20.00" meanMaxJamLengthInVehicles="0.00" meanMaxJamLengthInMeters="0.00" maxJamLengthInVehicles="0" maxJamLengthInMeters="0.00" jamLengthInVehiclesSum="0" jamLengthInMetersSum="0.00" meanHaltingDuration="0.00" maxHaltingDuration="0.00" haltingDurationSum="0.00" meanIntervalHaltingDuration="0.00" maxIntervalHaltingDuration="0.00" intervalHaltingDurationSum="0.00" startedHalts="0.00" meanVehicleNumber="0.85" maxVehicleNumber="4" />
   <interval begin="600.00" end="900.00" id="TLSintersection_1_E2CollectorOn_e2_in_0" sampledSeconds="140.19" nVehEntered="7" nVehLeft="7" nVehSeen="7" meanSpeed="5.24" meanTimeLoss="12.05" meanOccupancy="2.26" maxOccupancy="10.00" meanMaxJamLengthInVehicles="0.00" meanMaxJamLengthInMeters="0.00" maxJamLengthInVehicles="0" maxJamLengthInMeters="0.00" jamLengthInVehiclesSum="0" jamLengthInMetersSum="0.00" meanHaltingDuration="0.00" maxHaltingDuration="0.00" haltingDurationSum="0.00" meanIntervalHaltingDuration="0.00" maxIntervalHaltingDuration="0.00" intervalHaltingDurationSum="0.00" startedHalts="0.00" meanVehicleNumber="0.49" maxVehicleNumber="2" />
   <interval begin="600.00" end="900.00" id="TLSintersection_1_E2CollectorOn_e2_in_1" sampledSeconds="673.41" nVehEntered="41" nVehLeft="39" nVehSeen="41" meanSpeed="5.06" meanTimeLoss="10.23" meanOccupancy="11.08" maxOccupancy="30.59" meanMaxJamLengthInVehicles="0.00" meanMaxJamLengthInMeters="0.00" maxJamLengthInVehicles="0" maxJamLengthInMeters="0.00" jamLengthInVehiclesSum="0" jamLengthInMetersSum="0.00" meanHaltingDuration="0.00" maxHaltingDuration="0.00" haltingDurationSum="0.00" meanIntervalHaltingDuration="0.00" maxIntervalHaltingDuration="0.00" intervalHaltingDurationSum="0.00" startedHalts="0.00" meanVehicleNumber="2.35" maxVehicleNumber="7" />
   <interval begin="600.00" end="900.00" id="TLSintersection_1_E2CollectorOn_e2_in_2" sampledSeconds="491.57" nVehEntered="26" nVehLeft="25" nVehSeen="26" meanSpeed="3.57" meanTimeLoss="14.18" meanOccupancy="7.92" maxOccupancy="25.00" meanMaxJamLengthInVehicles="0.00" meanMaxJamLengthInMeters="0.00" maxJamLengthInVehicles="0" maxJamLengthInMeters="0.00" jamLengthInVehiclesSum="0" jamLengthInMetersSum="0.00" meanHaltingDuration="0.00" maxHaltingDuration="0.00" haltingDurationSum="0.00" meanIntervalHaltingDuration="0.00" maxIntervalHaltingDuration="0.00" intervalHaltingDurationSum="0.00" startedHalts="0.00" meanVehicleNumber="1.70" maxVehicleNumber="5" />